LAMMPS data file via write_data, version 8 Aug 2014, timestep = 0

100 atoms
1 atom types

0.0000000000000000e+00 1.0000000000000000e+00 xlo xhi
0.0000000000000000e+00 1.0150999999999999e+00 ylo yhi
-1.0075199999999999e-02 1.0075199999999999e-02 zlo zhi

Masses

1 0.010151

Atoms # meso

1 1 0.0000000000000000e+00 0.0000000000000000e+00 1.0000000000000000e+00 4.3479394420738982e-01 5.9060578003395614e-01 0.0000000000000000e+00 0 0 0
2 1 0.0000000000000000e+00 0.0000000000000000e+00 1.0000000000000000e+00 3.0807900722514792e-01 8.9722093700027128e-01 0.0000000000000000e+00 0 0 0
3 1 0.0000000000000000e+00 0.0000000000000000e+00 1.0000000000000000e+00 5.6365379577672747e-01 3.3431873831316766e-01 0.0000000000000000e+00 0 0 0
4 1 0.0000000000000000e+00 0.0000000000000000e+00 1.0000000000000000e+00 8.6383399267859473e-01 4.6482946487438370e-01 0.0000000000000000e+00 0 0 0
5 1 0.0000000000000000e+00 0.0000000000000000e+00 1.0000000000000000e+00 2.7980327246701497e-01 6.6346971845276170e-01 0.0000000000000000e+00 0 0 0
6 1 0.0000000000000000e+00 0.0000000000000000e+00 1.0000000000000000e+00 4.9424073495633936e-01 7.1466330060440264e-01 0.0000000000000000e+00 0 0 0
7 1 0.0000000000000000e+00 0.0000000000000000e+00 1.0000000000000000e+00 6.5647768818609309e-01 4.2685497435590009e-01 0.0000000000000000e+00 0 0 0
8 1 0.0000000000000000e+00 0.0000000000000000e+00 1.0000000000000000e+00 6.5803518735712174e-01 6.0641455920269460e-01 0.0000000000000000e+00 0 0 0
9 1 0.0000000000000000e+00 0.0000000000000000e+00 1.0000000000000000e+00 8.0160220377221802e-01 5.3621520554396096e-01 0.0000000000000000e+00 0 0 0
10 1 0.0000000000000000e+00 0.0000000000000000e+00 1.0000000000000000e+00 4.6795051287298578e-01 8.5701833110210390e-01 0.0000000000000000e+00 0 0 0
11 1 0.0000000000000000e+00 0.0000000000000000e+00 1.0000000000000000e+00 8.7373785296163420e-01 9.2586735655170271e-01 0.0000000000000000e+00 0 0 0
12 1 0.0000000000000000e+00 0.0000000000000000e+00 1.0000000000000000e+00 8.9105902886533128e-01 2.9537521532009128e-02 0.0000000000000000e+00 0 0 0
13 1 0.0000000000000000e+00 0.0000000000000000e+00 1.0000000000000000e+00 2.3563899250497994e-01 3.9035369136904069e-01 0.0000000000000000e+00 0 0 0
14 1 0.0000000000000000e+00 0.0000000000000000e+00 1.0000000000000000e+00 3.8985216216642976e-01 2.4899340310585374e-01 0.0000000000000000e+00 0 0 0
15 1 0.0000000000000000e+00 0.0000000000000000e+00 1.0000000000000000e+00 3.9856508672170576e-01 6.9373206093783113e-01 0.0000000000000000e+00 0 0 0
16 1 0.0000000000000000e+00 0.0000000000000000e+00 1.0000000000000000e+00 6.4227212715999793e-02 4.7381225598734439e-01 0.0000000000000000e+00 0 0 0
17 1 0.0000000000000000e+00 0.0000000000000000e+00 1.0000000000000000e+00 4.0220358427716585e-01 8.4825912461614184e-01 0.0000000000000000e+00 0 0 0
18 1 0.0000000000000000e+00 0.0000000000000000e+00 1.0000000000000000e+00 3.8820483507039250e-01 5.6709883981095577e-01 0.0000000000000000e+00 0 0 0
19 1 0.0000000000000000e+00 0.0000000000000000e+00 1.0000000000000000e+00 9.6592535961695269e-01 3.1216262026324987e-01 0.0000000000000000e+00 0 0 0
20 1 0.0000000000000000e+00 0.0000000000000000e+00 1.0000000000000000e+00 2.9499946967465779e-01 5.6933732985162043e-02 0.0000000000000000e+00 0 0 0
21 1 0.0000000000000000e+00 0.0000000000000000e+00 1.0000000000000000e+00 2.5447383534837227e-03 7.8103571135664152e-01 0.0000000000000000e+00 0 0 0
22 1 0.0000000000000000e+00 0.0000000000000000e+00 1.0000000000000000e+00 8.7504626245938533e-01 9.1616140552808578e-01 0.0000000000000000e+00 0 0 0
23 1 0.0000000000000000e+00 0.0000000000000000e+00 1.0000000000000000e+00 6.5809876688667512e-01 6.7603128782102428e-01 0.0000000000000000e+00 0 0 0
24 1 0.0000000000000000e+00 0.0000000000000000e+00 1.0000000000000000e+00 1.2987342482892489e-01 7.9446913134691721e-01 0.0000000000000000e+00 0 0 0
25 1 0.0000000000000000e+00 0.0000000000000000e+00 1.0000000000000000e+00 2.7941500501679956e-01 1.2992195604207082e-01 0.0000000000000000e+00 0 0 0
26 1 0.0000000000000000e+00 0.0000000000000000e+00 1.0000000000000000e+00 2.8780516064157952e-01 1.4346906006232324e-01 0.0000000000000000e+00 0 0 0
27 1 0.0000000000000000e+00 0.0000000000000000e+00 1.0000000000000000e+00 9.2483569910974972e-01 7.2437022112089677e-01 0.0000000000000000e+00 0 0 0
28 1 0.0000000000000000e+00 0.0000000000000000e+00 1.0000000000000000e+00 6.7344143179871208e-01 5.3814941899243240e-01 0.0000000000000000e+00 0 0 0
29 1 0.0000000000000000e+00 0.0000000000000000e+00 1.0000000000000000e+00 4.6940468739224817e-01 2.8887817463771348e-01 0.0000000000000000e+00 0 0 0
30 1 0.0000000000000000e+00 0.0000000000000000e+00 1.0000000000000000e+00 2.6357365784401710e-01 8.9579264189977770e-01 0.0000000000000000e+00 0 0 0
31 1 0.0000000000000000e+00 0.0000000000000000e+00 1.0000000000000000e+00 1.4147137065486581e-01 7.2003742793418335e-01 0.0000000000000000e+00 0 0 0
32 1 0.0000000000000000e+00 0.0000000000000000e+00 1.0000000000000000e+00 9.2052805839131036e-01 3.1983505123180106e-01 0.0000000000000000e+00 0 0 0
33 1 0.0000000000000000e+00 0.0000000000000000e+00 1.0000000000000000e+00 1.4720792376771938e-01 1.2544074299695934e-01 0.0000000000000000e+00 0 0 0
34 1 0.0000000000000000e+00 0.0000000000000000e+00 1.0000000000000000e+00 2.4786829075211114e-01 9.3629034705995118e-01 0.0000000000000000e+00 0 0 0
35 1 0.0000000000000000e+00 0.0000000000000000e+00 1.0000000000000000e+00 8.3298363295988345e-02 1.0106253536028904e+00 0.0000000000000000e+00 0 0 0
36 1 0.0000000000000000e+00 0.0000000000000000e+00 1.0000000000000000e+00 2.8301601497596873e-01 6.5998117299358405e-01 0.0000000000000000e+00 0 0 0
37 1 0.0000000000000000e+00 0.0000000000000000e+00 1.0000000000000000e+00 3.6092479404105099e-01 6.3964951007564053e-02 0.0000000000000000e+00 0 0 0
38 1 0.0000000000000000e+00 0.0000000000000000e+00 1.0000000000000000e+00 3.9822131786412623e-01 9.1936525143895531e-01 0.0000000000000000e+00 0 0 0
39 1 0.0000000000000000e+00 0.0000000000000000e+00 1.0000000000000000e+00 5.0238059577642968e-01 5.1838437999183518e-01 0.0000000000000000e+00 0 0 0
40 1 0.0000000000000000e+00 0.0000000000000000e+00 1.0000000000000000e+00 4.1040710751451881e-01 7.2301106206537735e-01 0.0000000000000000e+00 0 0 0
41 1 0.0000000000000000e+00 0.0000000000000000e+00 1.0000000000000000e+00 9.6815282617143950e-01 7.5579216028120932e-01 0.0000000000000000e+00 0 0 0
42 1 0.0000000000000000e+00 0.0000000000000000e+00 1.0000000000000000e+00 6.2242656975166247e-02 1.1403205192155765e-01 0.0000000000000000e+00 0 0 0
43 1 0.0000000000000000e+00 0.0000000000000000e+00 1.0000000000000000e+00 8.8446746947451838e-01 2.4845532605045254e-01 0.0000000000000000e+00 0 0 0
44 1 0.0000000000000000e+00 0.0000000000000000e+00 1.0000000000000000e+00 9.0895259329534717e-01 7.7780567117575816e-01 0.0000000000000000e+00 0 0 0
45 1 0.0000000000000000e+00 0.0000000000000000e+00 1.0000000000000000e+00 8.6423448001231740e-01 1.9175804108071981e-01 0.0000000000000000e+00 0 0 0
46 1 0.0000000000000000e+00 0.0000000000000000e+00 1.0000000000000000e+00 8.1103888843722591e-02 1.1476699937189322e-01 0.0000000000000000e+00 0 0 0
47 1 0.0000000000000000e+00 0.0000000000000000e+00 1.0000000000000000e+00 1.5285034577960629e-01 9.7019351676255150e-01 0.0000000000000000e+00 0 0 0
48 1 0.0000000000000000e+00 0.0000000000000000e+00 1.0000000000000000e+00 7.3735340812120276e-01 7.0928112048054159e-01 0.0000000000000000e+00 0 0 0
49 1 0.0000000000000000e+00 0.0000000000000000e+00 1.0000000000000000e+00 5.1466851100077315e-01 3.4172722283691503e-02 0.0000000000000000e+00 0 0 0
50 1 0.0000000000000000e+00 0.0000000000000000e+00 1.0000000000000000e+00 9.4620589723168214e-01 8.9584074595251140e-01 0.0000000000000000e+00 0 0 0
51 1 0.0000000000000000e+00 0.0000000000000000e+00 1.0000000000000000e+00 2.1601954811067300e-01 6.5021732703182722e-01 0.0000000000000000e+00 0 0 0
52 1 0.0000000000000000e+00 0.0000000000000000e+00 1.0000000000000000e+00 5.1121054520421216e-01 9.2945930922727993e-01 0.0000000000000000e+00 0 0 0
53 1 0.0000000000000000e+00 0.0000000000000000e+00 1.0000000000000000e+00 4.9398474511410329e-01 4.0767546083856154e-01 0.0000000000000000e+00 0 0 0
54 1 0.0000000000000000e+00 0.0000000000000000e+00 1.0000000000000000e+00 7.2028612378998014e-01 8.6170066452287153e-01 0.0000000000000000e+00 0 0 0
55 1 0.0000000000000000e+00 0.0000000000000000e+00 1.0000000000000000e+00 3.4869830093751580e-01 5.8098624906655683e-01 0.0000000000000000e+00 0 0 0
56 1 0.0000000000000000e+00 0.0000000000000000e+00 1.0000000000000000e+00 4.7123601961472816e-01 6.4744767873987918e-02 0.0000000000000000e+00 0 0 0
57 1 0.0000000000000000e+00 0.0000000000000000e+00 1.0000000000000000e+00 6.2806810793842571e-01 9.5489454194907764e-01 0.0000000000000000e+00 0 0 0
58 1 0.0000000000000000e+00 0.0000000000000000e+00 1.0000000000000000e+00 1.9525828594121070e-01 7.1667259231869707e-01 0.0000000000000000e+00 0 0 0
59 1 0.0000000000000000e+00 0.0000000000000000e+00 1.0000000000000000e+00 9.3636042994277568e-01 4.1593321355978635e-01 0.0000000000000000e+00 0 0 0
60 1 0.0000000000000000e+00 0.0000000000000000e+00 1.0000000000000000e+00 9.5640448897909582e-04 7.5412028990365573e-02 0.0000000000000000e+00 0 0 0
61 1 0.0000000000000000e+00 0.0000000000000000e+00 1.0000000000000000e+00 8.1385945752908451e-01 5.4399482196224613e-01 0.0000000000000000e+00 0 0 0
62 1 0.0000000000000000e+00 0.0000000000000000e+00 1.0000000000000000e+00 1.7130937062730517e-01 1.9956067432819896e-01 0.0000000000000000e+00 0 0 0
63 1 0.0000000000000000e+00 0.0000000000000000e+00 1.0000000000000000e+00 7.5398080179187510e-01 1.5768128535648868e-01 0.0000000000000000e+00 0 0 0
64 1 0.0000000000000000e+00 0.0000000000000000e+00 1.0000000000000000e+00 6.8184605365705031e-02 9.9344018336359419e-01 0.0000000000000000e+00 0 0 0
65 1 0.0000000000000000e+00 0.0000000000000000e+00 1.0000000000000000e+00 8.7413745367626539e-01 6.3766951444133613e-01 0.0000000000000000e+00 0 0 0
66 1 0.0000000000000000e+00 0.0000000000000000e+00 1.0000000000000000e+00 1.9826185898774391e-02 2.2200886735176148e-01 0.0000000000000000e+00 0 0 0
67 1 0.0000000000000000e+00 0.0000000000000000e+00 1.0000000000000000e+00 9.9595783464422349e-01 6.4283101132643919e-02 0.0000000000000000e+00 0 0 0
68 1 0.0000000000000000e+00 0.0000000000000000e+00 1.0000000000000000e+00 9.0371169191957992e-02 8.8135104243753049e-01 0.0000000000000000e+00 0 0 0
69 1 0.0000000000000000e+00 0.0000000000000000e+00 1.0000000000000000e+00 2.8642599297986643e-01 9.7618513920590511e-01 0.0000000000000000e+00 0 0 0
70 1 0.0000000000000000e+00 0.0000000000000000e+00 1.0000000000000000e+00 4.1787778139946880e-01 2.7597724778311195e-01 0.0000000000000000e+00 0 0 0
71 1 0.0000000000000000e+00 0.0000000000000000e+00 1.0000000000000000e+00 4.9292607349014195e-01 6.1770575776244774e-01 0.0000000000000000e+00 0 0 0
72 1 0.0000000000000000e+00 0.0000000000000000e+00 1.0000000000000000e+00 1.3238215964864108e-01 9.6125626865288050e-01 0.0000000000000000e+00 0 0 0
73 1 0.0000000000000000e+00 0.0000000000000000e+00 1.0000000000000000e+00 1.7765114092158672e-02 5.8700446236916093e-01 0.0000000000000000e+00 0 0 0
74 1 0.0000000000000000e+00 0.0000000000000000e+00 1.0000000000000000e+00 6.7849459856678485e-01 4.6564475544264755e-01 0.0000000000000000e+00 0 0 0
75 1 0.0000000000000000e+00 0.0000000000000000e+00 1.0000000000000000e+00 8.9449905459512913e-01 8.5837930009825114e-01 0.0000000000000000e+00 0 0 0
76 1 0.0000000000000000e+00 0.0000000000000000e+00 1.0000000000000000e+00 2.3721725877244829e-01 9.2421625818536424e-01 0.0000000000000000e+00 0 0 0
77 1 0.0000000000000000e+00 0.0000000000000000e+00 1.0000000000000000e+00 2.6397311047835886e-01 6.0506843370500407e-01 0.0000000000000000e+00 0 0 0
78 1 0.0000000000000000e+00 0.0000000000000000e+00 1.0000000000000000e+00 9.8774606966774259e-01 4.8920618627043722e-02 0.0000000000000000e+00 0 0 0
79 1 0.0000000000000000e+00 0.0000000000000000e+00 1.0000000000000000e+00 5.1825648197823038e-02 3.4177666650096729e-02 0.0000000000000000e+00 0 0 0
80 1 0.0000000000000000e+00 0.0000000000000000e+00 1.0000000000000000e+00 8.3146987475057588e-01 5.2194912541678595e-01 0.0000000000000000e+00 0 0 0
81 1 0.0000000000000000e+00 0.0000000000000000e+00 1.0000000000000000e+00 9.6132287940072025e-01 9.6803396263342989e-01 0.0000000000000000e+00 0 0 0
82 1 0.0000000000000000e+00 0.0000000000000000e+00 1.0000000000000000e+00 4.3614898782044137e-01 3.6141447646017860e-01 0.0000000000000000e+00 0 0 0
83 1 0.0000000000000000e+00 0.0000000000000000e+00 1.0000000000000000e+00 9.2571528904406131e-01 5.0436559428845784e-01 0.0000000000000000e+00 0 0 0
84 1 0.0000000000000000e+00 0.0000000000000000e+00 1.0000000000000000e+00 3.4456224103670674e-01 5.8454638999120623e-02 0.0000000000000000e+00 0 0 0
85 1 0.0000000000000000e+00 0.0000000000000000e+00 1.0000000000000000e+00 5.7125574889185637e-01 9.6811736974591264e-02 0.0000000000000000e+00 0 0 0
86 1 0.0000000000000000e+00 0.0000000000000000e+00 1.0000000000000000e+00 6.4104046376470503e-01 9.8167731824688476e-01 0.0000000000000000e+00 0 0 0
87 1 0.0000000000000000e+00 0.0000000000000000e+00 1.0000000000000000e+00 3.2375239037152026e-01 3.1105199125043670e-01 0.0000000000000000e+00 0 0 0
88 1 0.0000000000000000e+00 0.0000000000000000e+00 1.0000000000000000e+00 8.7027183727839585e-01 6.6871655198224655e-01 0.0000000000000000e+00 0 0 0
89 1 0.0000000000000000e+00 0.0000000000000000e+00 1.0000000000000000e+00 2.8963309120835412e-01 8.7640073428414789e-01 0.0000000000000000e+00 0 0 0
90 1 0.0000000000000000e+00 0.0000000000000000e+00 1.0000000000000000e+00 5.9245151448643374e-01 3.3762629349111867e-01 0.0000000000000000e+00 0 0 0
91 1 0.0000000000000000e+00 0.0000000000000000e+00 1.0000000000000000e+00 2.3037222038506167e-01 8.7898322270879659e-01 0.0000000000000000e+00 0 0 0
92 1 0.0000000000000000e+00 0.0000000000000000e+00 1.0000000000000000e+00 2.2499242249177415e-01 4.5440425601895162e-01 0.0000000000000000e+00 0 0 0
93 1 0.0000000000000000e+00 0.0000000000000000e+00 1.0000000000000000e+00 7.8072418215718320e-01 6.4086259146545199e-01 0.0000000000000000e+00 0 0 0
94 1 0.0000000000000000e+00 0.0000000000000000e+00 1.0000000000000000e+00 1.7021853717519833e-01 8.7598491354216113e-01 0.0000000000000000e+00 0 0 0
95 1 0.0000000000000000e+00 0.0000000000000000e+00 1.0000000000000000e+00 7.7328879329063405e-01 6.7478654310581576e-01 0.0000000000000000e+00 0 0 0
96 1 0.0000000000000000e+00 0.0000000000000000e+00 1.0000000000000000e+00 8.8312929630425263e-01 7.6546963865564643e-01 0.0000000000000000e+00 0 0 0
97 1 0.0000000000000000e+00 0.0000000000000000e+00 1.0000000000000000e+00 1.1653411533522146e-01 5.9776847329692373e-01 0.0000000000000000e+00 0 0 0
98 1 0.0000000000000000e+00 0.0000000000000000e+00 1.0000000000000000e+00 7.5568751513757160e-01 8.5275192761535368e-01 0.0000000000000000e+00 0 0 0
99 1 0.0000000000000000e+00 0.0000000000000000e+00 1.0000000000000000e+00 6.0316918725295421e-01 4.7154456582332233e-01 0.0000000000000000e+00 0 0 0
100 1 0.0000000000000000e+00 0.0000000000000000e+00 1.0000000000000000e+00 7.2735680440783357e-01 6.9616743886306298e-01 0.0000000000000000e+00 0 0 0

Velocities

1 0.0000000000000000e+00 0.0000000000000000e+00 0.0000000000000000e+00
2 0.0000000000000000e+00 0.0000000000000000e+00 0.0000000000000000e+00
3 0.0000000000000000e+00 0.0000000000000000e+00 0.0000000000000000e+00
4 0.0000000000000000e+00 0.0000000000000000e+00 0.0000000000000000e+00
5 0.0000000000000000e+00 0.0000000000000000e+00 0.0000000000000000e+00
6 0.0000000000000000e+00 0.0000000000000000e+00 0.0000000000000000e+00
7 0.0000000000000000e+00 0.0000000000000000e+00 0.0000000000000000e+00
8 0.0000000000000000e+00 0.0000000000000000e+00 0.0000000000000000e+00
9 0.0000000000000000e+00 0.0000000000000000e+00 0.0000000000000000e+00
10 0.0000000000000000e+00 0.0000000000000000e+00 0.0000000000000000e+00
11 0.0000000000000000e+00 0.0000000000000000e+00 0.0000000000000000e+00
12 0.0000000000000000e+00 0.0000000000000000e+00 0.0000000000000000e+00
13 0.0000000000000000e+00 0.0000000000000000e+00 0.0000000000000000e+00
14 0.0000000000000000e+00 0.0000000000000000e+00 0.0000000000000000e+00
15 0.0000000000000000e+00 0.0000000000000000e+00 0.0000000000000000e+00
16 0.0000000000000000e+00 0.0000000000000000e+00 0.0000000000000000e+00
17 0.0000000000000000e+00 0.0000000000000000e+00 0.0000000000000000e+00
18 0.0000000000000000e+00 0.0000000000000000e+00 0.0000000000000000e+00
19 0.0000000000000000e+00 0.0000000000000000e+00 0.0000000000000000e+00
20 0.0000000000000000e+00 0.0000000000000000e+00 0.0000000000000000e+00
21 0.0000000000000000e+00 0.0000000000000000e+00 0.0000000000000000e+00
22 0.0000000000000000e+00 0.0000000000000000e+00 0.0000000000000000e+00
23 0.0000000000000000e+00 0.0000000000000000e+00 0.0000000000000000e+00
24 0.0000000000000000e+00 0.0000000000000000e+00 0.0000000000000000e+00
25 0.0000000000000000e+00 0.0000000000000000e+00 0.0000000000000000e+00
26 0.0000000000000000e+00 0.0000000000000000e+00 0.0000000000000000e+00
27 0.0000000000000000e+00 0.0000000000000000e+00 0.0000000000000000e+00
28 0.0000000000000000e+00 0.0000000000000000e+00 0.0000000000000000e+00
29 0.0000000000000000e+00 0.0000000000000000e+00 0.0000000000000000e+00
30 0.0000000000000000e+00 0.0000000000000000e+00 0.0000000000000000e+00
31 0.0000000000000000e+00 0.0000000000000000e+00 0.0000000000000000e+00
32 0.0000000000000000e+00 0.0000000000000000e+00 0.0000000000000000e+00
33 0.0000000000000000e+00 0.0000000000000000e+00 0.0000000000000000e+00
34 0.0000000000000000e+00 0.0000000000000000e+00 0.0000000000000000e+00
35 0.0000000000000000e+00 0.0000000000000000e+00 0.0000000000000000e+00
36 0.0000000000000000e+00 0.0000000000000000e+00 0.0000000000000000e+00
37 0.0000000000000000e+00 0.0000000000000000e+00 0.0000000000000000e+00
38 0.0000000000000000e+00 0.0000000000000000e+00 0.0000000000000000e+00
39 0.0000000000000000e+00 0.0000000000000000e+00 0.0000000000000000e+00
40 0.0000000000000000e+00 0.0000000000000000e+00 0.0000000000000000e+00
41 0.0000000000000000e+00 0.0000000000000000e+00 0.0000000000000000e+00
42 0.0000000000000000e+00 0.0000000000000000e+00 0.0000000000000000e+00
43 0.0000000000000000e+00 0.0000000000000000e+00 0.0000000000000000e+00
44 0.0000000000000000e+00 0.0000000000000000e+00 0.0000000000000000e+00
45 0.0000000000000000e+00 0.0000000000000000e+00 0.0000000000000000e+00
46 0.0000000000000000e+00 0.0000000000000000e+00 0.0000000000000000e+00
47 0.0000000000000000e+00 0.0000000000000000e+00 0.0000000000000000e+00
48 0.0000000000000000e+00 0.0000000000000000e+00 0.0000000000000000e+00
49 0.0000000000000000e+00 0.0000000000000000e+00 0.0000000000000000e+00
50 0.0000000000000000e+00 0.0000000000000000e+00 0.0000000000000000e+00
51 0.0000000000000000e+00 0.0000000000000000e+00 0.0000000000000000e+00
52 0.0000000000000000e+00 0.0000000000000000e+00 0.0000000000000000e+00
53 0.0000000000000000e+00 0.0000000000000000e+00 0.0000000000000000e+00
54 0.0000000000000000e+00 0.0000000000000000e+00 0.0000000000000000e+00
55 0.0000000000000000e+00 0.0000000000000000e+00 0.0000000000000000e+00
56 0.0000000000000000e+00 0.0000000000000000e+00 0.0000000000000000e+00
57 0.0000000000000000e+00 0.0000000000000000e+00 0.0000000000000000e+00
58 0.0000000000000000e+00 0.0000000000000000e+00 0.0000000000000000e+00
59 0.0000000000000000e+00 0.0000000000000000e+00 0.0000000000000000e+00
60 0.0000000000000000e+00 0.0000000000000000e+00 0.0000000000000000e+00
61 0.0000000000000000e+00 0.0000000000000000e+00 0.0000000000000000e+00
62 0.0000000000000000e+00 0.0000000000000000e+00 0.0000000000000000e+00
63 0.0000000000000000e+00 0.0000000000000000e+00 0.0000000000000000e+00
64 0.0000000000000000e+00 0.0000000000000000e+00 0.0000000000000000e+00
65 0.0000000000000000e+00 0.0000000000000000e+00 0.0000000000000000e+00
66 0.0000000000000000e+00 0.0000000000000000e+00 0.0000000000000000e+00
67 0.0000000000000000e+00 0.0000000000000000e+00 0.0000000000000000e+00
68 0.0000000000000000e+00 0.0000000000000000e+00 0.0000000000000000e+00
69 0.0000000000000000e+00 0.0000000000000000e+00 0.0000000000000000e+00
70 0.0000000000000000e+00 0.0000000000000000e+00 0.0000000000000000e+00
71 0.0000000000000000e+00 0.0000000000000000e+00 0.0000000000000000e+00
72 0.0000000000000000e+00 0.0000000000000000e+00 0.0000000000000000e+00
73 0.0000000000000000e+00 0.0000000000000000e+00 0.0000000000000000e+00
74 0.0000000000000000e+00 0.0000000000000000e+00 0.0000000000000000e+00
75 0.0000000000000000e+00 0.0000000000000000e+00 0.0000000000000000e+00
76 0.0000000000000000e+00 0.0000000000000000e+00 0.0000000000000000e+00
77 0.0000000000000000e+00 0.0000000000000000e+00 0.0000000000000000e+00
78 0.0000000000000000e+00 0.0000000000000000e+00 0.0000000000000000e+00
79 0.0000000000000000e+00 0.0000000000000000e+00 0.0000000000000000e+00
80 0.0000000000000000e+00 0.0000000000000000e+00 0.0000000000000000e+00
81 0.0000000000000000e+00 0.0000000000000000e+00 0.0000000000000000e+00
82 0.0000000000000000e+00 0.0000000000000000e+00 0.0000000000000000e+00
83 0.0000000000000000e+00 0.0000000000000000e+00 0.0000000000000000e+00
84 0.0000000000000000e+00 0.0000000000000000e+00 0.0000000000000000e+00
85 0.0000000000000000e+00 0.0000000000000000e+00 0.0000000000000000e+00
86 0.0000000000000000e+00 0.0000000000000000e+00 0.0000000000000000e+00
87 0.0000000000000000e+00 0.0000000000000000e+00 0.0000000000000000e+00
88 0.0000000000000000e+00 0.0000000000000000e+00 0.0000000000000000e+00
89 0.0000000000000000e+00 0.0000000000000000e+00 0.0000000000000000e+00
90 0.0000000000000000e+00 0.0000000000000000e+00 0.0000000000000000e+00
91 0.0000000000000000e+00 0.0000000000000000e+00 0.0000000000000000e+00
92 0.0000000000000000e+00 0.0000000000000000e+00 0.0000000000000000e+00
93 0.0000000000000000e+00 0.0000000000000000e+00 0.0000000000000000e+00
94 0.0000000000000000e+00 0.0000000000000000e+00 0.0000000000000000e+00
95 0.0000000000000000e+00 0.0000000000000000e+00 0.0000000000000000e+00
96 0.0000000000000000e+00 0.0000000000000000e+00 0.0000000000000000e+00
97 0.0000000000000000e+00 0.0000000000000000e+00 0.0000000000000000e+00
98 0.0000000000000000e+00 0.0000000000000000e+00 0.0000000000000000e+00
99 0.0000000000000000e+00 0.0000000000000000e+00 0.0000000000000000e+00
100 0.0000000000000000e+00 0.0000000000000000e+00 0.0000000000000000e+00
